# vtk DataFile Version 1.0
torreSBT10_0.vtk 3D Unstructured Grid of Quadrilaters
ASCII

DATASET UNSTRUCTURED_GRID
POINTS 37 float
  -2.805660000000000  -5.626460000000000                   0
  -1.997125000000000  -3.411485000000000                   0
  -0.398393000000000  -5.784050000000000                   0
   0.399058500000000  -3.486320000000000                   0
  -1.188590000000000  -1.196510000000000                   0
  -1.188590000000000  -1.196510000000000   0.500000000000000
  -1.188590000000000  -1.196510000000000   1.000000000000000
   0.003960000000000  -1.192550000000000                   0
   0.003960000000000  -1.192550000000000   0.500000000000000
   0.003960000000000  -1.192550000000000   1.000000000000000
  -1.192550000000000  -0.003960000000000                   0
  -1.192550000000000  -0.003960000000000   0.500000000000000
  -1.192550000000000  -0.003960000000000   1.000000000000000
   1.196510000000000  -1.188590000000000                   0
   1.196510000000000  -1.188590000000000   0.500000000000000
   1.196510000000000  -1.188590000000000   1.000000000000000
                   0                   0                   0
                   0                   0   0.500000000000000
                   0                   0   1.000000000000000
   1.192550000000000   0.003960000000000                   0
   1.192550000000000   0.003960000000000   0.500000000000000
   1.192550000000000   0.003960000000000   1.000000000000000
  -1.196510000000000   1.188590000000000                   0
  -1.196510000000000   1.188590000000000   0.500000000000000
  -1.196510000000000   1.188590000000000   1.000000000000000
   3.163250000000000  -1.667590000000000                   0
  -0.003960000000000   1.192550000000000                   0
  -0.003960000000000   1.192550000000000   0.500000000000000
  -0.003960000000000   1.192550000000000   1.000000000000000
   1.188590000000000   1.196510000000000                   0
   1.188590000000000   1.196510000000000   0.500000000000000
   3.215962500000000  -0.428798000000000                   0
   1.188590000000000   1.196510000000000   1.000000000000000
   5.129990000000000  -2.146590000000000                   0
   3.268675000000000   0.809994000000000                   0
   5.239375000000000  -0.861556000000000                   0
   5.348760000000000   0.423478000000000                   0
CELLS  16 144
     8    17    11    10    16     8     5     4     7
     8    20    17    16    19    14     8     7    13
     8    18    12    11    17     9     6     5     8
     8    21    18    17    20    15     9     8    14
     8    27    23    22    26    17    11    10    16
     8    30    27    26    29    20    17    16    19
     8    28    24    23    27    18    12    11    17
     8    32    28    27    30    21    18    17    20
4 25 31 19 13
4 33 35 31 25
4 31 34 29 19
4 35 36 34 31
2 4 1
2 1 0
2 13 3
2 3 2
CELL_TYPES  16
12
12
12
12
12
12
12
12
9
9
9
9
3
3
3
3

POINT_DATA   37
VECTORS displacement float

      0.0000E+00      0.0000E+00      0.0000E+00
      0.0000E+00      0.0000E+00      0.0000E+00
      0.2091E-01      0.2238E-01     -0.4399E-02
      0.2075E-01      0.2272E-01     -0.3225E-02
      0.5687E-01      0.4400E-01     -0.1477E-01
      0.5583E-01      0.4469E-01     -0.1185E-01
      0.1117E+00      0.6390E-01     -0.3040E-01
      0.1092E+00      0.6497E-01     -0.2543E-01
      0.1841E+00      0.8194E-01     -0.5073E-01
      0.1795E+00      0.8338E-01     -0.4361E-01
      0.2723E+00      0.9812E-01     -0.7516E-01
      0.2651E+00      0.9995E-01     -0.6605E-01
      0.3742E+00      0.1124E+00     -0.1031E+00
      0.3639E+00      0.1147E+00     -0.9242E-01
      0.4880E+00      0.1249E+00     -0.1340E+00
      0.4740E+00      0.1275E+00     -0.1224E+00
      0.6115E+00      0.1354E+00     -0.1672E+00
      0.5934E+00      0.1385E+00     -0.1556E+00
      0.7427E+00      0.1441E+00     -0.2020E+00
      0.7203E+00      0.1476E+00     -0.1919E+00
      0.8800E+00      0.1510E+00     -0.2378E+00
      0.8528E+00      0.1550E+00     -0.2307E+00
      0.1022E+01      0.1562E+00     -0.2740E+00
      0.9894E+00      0.1606E+00     -0.2716E+00
      0.1167E+01      0.1599E+00     -0.3097E+00
      0.1129E+01      0.1644E+00     -0.3139E+00
      0.1313E+01      0.1618E+00     -0.3445E+00
      0.1268E+01      0.1663E+00     -0.3567E+00
      0.1480E+01      0.1009E+00     -0.3957E+00
      0.1459E+01      0.1625E+00     -0.3780E+00
      0.1457E+01      0.9309E-01     -0.3977E+00
      0.1438E+01      0.1097E+00     -0.3992E+00
      0.1434E+01      0.1126E+00     -0.3994E+00
      0.1429E+01      0.1150E+00     -0.3993E+00
      0.1418E+01      0.1222E+00     -0.3984E+00
      0.1415E+01      0.1289E+00     -0.3986E+00
      0.1418E+01      0.1344E+00     -0.3996E+00

SCALARS Von_Mises float 1
LOOKUP_TABLE default
      0.4896E+02
      0.5038E+02
      0.5332E+02
      0.5303E+02
      0.4998E+02
      0.5085E+02
      0.4546E+02
      0.4705E+02
      0.4112E+02
      0.4221E+02
      0.3728E+02
      0.3785E+02
      0.3273E+02
      0.3333E+02
      0.2720E+02
      0.2827E+02
      0.2287E+02
      0.2345E+02
      0.1822E+02
      0.1918E+02
      0.1378E+02
      0.1501E+02
      0.9913E+01
      0.1024E+02
      0.5502E+01
      0.5885E+01
      0.2365E+01
      0.1645E+01
      0.5737E+00
      0.8160E+00
      0.2398E+01
      0.1292E+00
      0.3699E+00
      0.3699E+00
      0.3699E+00
      0.1292E+00
      0.1312E+01
