# vtk DataFile Version 1.0
 torreSBT10_0.vtk 3D Unstructured Grid of Quadrilaters
 ASCII

DATASET UNSTRUCTURED_GRID
POINTS 21565 float
      -50.000000    -1400.000000       50.000000
      -50.000000    -1400.000000     2244.000000
      -50.000000    -1300.000000       50.000000
      -50.000000    -1300.000000     2244.000000
      -50.000000    -1200.000000       50.000000
      -50.000000    -1200.000000     2244.000000
      -50.000000    -1100.000000       50.000000
      -50.000000    -1100.000000     2244.000000
      -50.000000    -1000.000000       50.000000
      -50.000000    -1000.000000     2244.000000
      -50.000000     -900.000000       50.000000
      -50.000000     -900.000000     2244.000000
      -50.000000     -800.000000       50.000000
      -50.000000     -800.000000     2244.000000
      -50.000000     -700.000000       50.000000
      -50.000000     -700.000000     2244.000000
      -50.000000     -600.000000       50.000000
      -50.000000     -600.000000     2244.000000
      -50.000000     -500.000000       50.000000
      -50.000000     -500.000000     2244.000000
      -50.000000     -400.000000       50.000000
      -50.000000     -400.000000     2244.000000
      -50.000000     -300.000000       50.000000
      -50.000000     -300.000000     2244.000000
      -50.000000     -200.000000       50.000000
      -50.000000     -200.000000     2244.000000
      -50.000000     -100.000000       50.000000
      -50.000000     -100.000000     2244.000000
      -50.000000        0.000000      -50.000000
      -50.000000        0.000000       50.000000
      -50.000000        0.000000      169.830000
      -50.000000        0.000000      339.650000
      -50.000000        0.000000      380.400000
      -50.000000        0.000000      421.150000
      -50.000000        0.000000      590.970000
      -50.000000        0.000000      760.800000
      -50.000000        0.000000      933.530000
      -50.000000        0.000000     1106.200000
      -50.000000        0.000000     1147.000000
      -50.000000        0.000000     1187.800000
      -50.000000        0.000000     1360.500000
      -50.000000        0.000000     1533.200000
      -50.000000        0.000000     1703.000000
      -50.000000        0.000000     1872.800000
      -50.000000        0.000000     1913.600000
      -50.000000        0.000000     1954.300000
      -50.000000        0.000000     2124.200000
      -50.000000        0.000000     2244.000000
      -50.000000        0.000000     2343.900000
      -50.000000      200.000000      -50.000000
      -50.000000      200.000000      169.830000
      -50.000000      200.000000      339.650000
      -50.000000      200.000000      380.400000
      -50.000000      200.000000      421.150000
      -50.000000      200.000000      590.970000
      -50.000000      200.000000      760.800000
      -50.000000      200.000000      933.530000
      -50.000000      200.000000     1106.200000
      -50.000000      200.000000     1147.000000
      -50.000000      200.000000     1187.800000
      -50.000000      200.000000     1360.500000
      -50.000000      200.000000     1533.200000
      -50.000000      200.000000     1703.000000
      -50.000000      200.000000     1872.800000
      -50.000000      200.000000     1913.600000
      -50.000000      200.000000     1954.300000
      -50.000000      200.000000     2124.200000
      -50.000000      200.000000     2343.900000
      -26.200000      200.000000        0.000000
      -26.200000      200.000000      169.830000
      -26.200000      200.000000      339.650000
      -26.200000      200.000000      380.400000
      -26.200000      200.000000      421.150000
      -26.200000      200.000000      590.970000
      -26.200000      200.000000      760.800000
      -26.200000      200.000000      933.530000
      -26.200000      200.000000     1106.200000
      -26.200000      200.000000     1147.000000
      -26.200000      200.000000     1187.800000
      -26.200000      200.000000     1360.500000
      -26.200000      200.000000     1533.200000
      -26.200000      200.000000     1703.000000
      -26.200000      200.000000     1872.800000
      -26.200000      200.000000     1913.600000
      -26.200000      200.000000     1954.300000
      -26.200000      200.000000     2124.200000
      -26.200000      200.000000     2294.000000
      -20.710678    -1400.000000      -20.710678
      -20.710678    -1400.000000      120.710678
      -20.710678    -1400.000000     2173.289320
      -20.710678    -1400.000000     2314.710680
      -20.710678    -1300.000000      -20.710678
      -20.710678    -1300.000000      120.710678
      -20.710678    -1300.000000     2173.289320
      -20.710678    -1300.000000     2314.710680
      -20.710678    -1200.000000      -20.710678
      -20.710678    -1200.000000      120.710678
      -20.710678    -1200.000000     2173.289320
      -20.710678    -1200.000000     2314.710680
      -20.710678    -1100.000000      -20.710678
      -20.710678    -1100.000000      120.710678
      -20.710678    -1100.000000     2173.289320
      -20.710678    -1100.000000     2314.710680
      -20.710678    -1000.000000      -20.710678
      -20.710678    -1000.000000      120.710678
      -20.710678    -1000.000000     2173.289320
      -20.710678    -1000.000000     2314.710680
      -20.710678     -900.000000      -20.710678
      -20.710678     -900.000000      120.710678
      -20.710678     -900.000000     2173.289320
      -20.710678     -900.000000     2314.710680
      -20.710678     -800.000000      -20.710678
      -20.710678     -800.000000      120.710678
      -20.710678     -800.000000     2173.289320
      -20.710678     -800.000000     2314.710680
      -20.710678     -700.000000      -20.710678
      -20.710678     -700.000000      120.710678
      -20.710678     -700.000000     2173.289320
      -20.710678     -700.000000     2314.710680
      -20.710678     -600.000000      -20.710678
      -20.710678     -600.000000      120.710678
      -20.710678     -600.000000     2173.289320
      -20.710678     -600.000000     2314.710680
      -20.710678     -500.000000      -20.710678
      -20.710678     -500.000000      120.710678
      -20.710678     -500.000000     2173.289320
      -20.710678     -500.000000     2314.710680
      -20.710678     -400.000000      -20.710678
      -20.710678     -400.000000      120.710678
      -20.710678     -400.000000     2173.289320
      -20.710678     -400.000000     2314.710680
      -20.710678     -300.000000      -20.710678
      -20.710678     -300.000000      120.710678
      -20.710678     -300.000000     2173.289320
      -20.710678     -300.000000     2314.710680
      -20.710678     -200.000000      -20.710678
      -20.710678     -200.000000      120.710678
      -20.710678     -200.000000     2173.289320
      -20.710678     -200.000000     2314.710680
      -20.710678     -100.000000      -20.710678
      -20.710678     -100.000000      120.710678
      -20.710678     -100.000000     2173.289320
      -20.710678     -100.000000     2314.710680
      -20.710678        0.000000      -20.710678
      -20.710678        0.000000      120.710678
      -20.710678        0.000000     2173.289320
      -20.710678        0.000000     2314.710680
       -7.200000     1300.000000        0.000000
       -7.200000     1300.000000     2294.000000
       -7.200000     1316.000000        0.000000
       -7.200000     1316.000000     2294.000000
       -7.200000     1351.100000        0.000000
       -7.200000     1351.100000     2294.000000
       -7.200000     1472.000000        0.000000
       -7.200000     1472.000000     2294.000000
       -7.200000     1496.000000        0.000000
       -7.200000     1496.000000     2294.000000
       -7.200000     1574.000000        0.000000
       -7.200000     1574.000000     2294.000000
       -7.200000     1652.000000        0.000000
       -7.200000     1652.000000     2294.000000
       -7.200000     1676.000000        0.000000
       -7.200000     1676.000000     2294.000000
       -7.200000     1711.100000        0.000000
       -7.200000     1711.100000     2294.000000
       -7.200000     1832.000000        0.000000
       -7.200000     1832.000000     2294.000000
       -7.200000     1856.000000        0.000000
       -7.200000     1856.000000     2294.000000
       -7.200000     1934.000000        0.000000
       -7.200000     1934.000000     2294.000000
       -7.200000     2012.000000        0.000000
       -7.200000     2012.000000     2294.000000
       -7.200000     2036.000000        0.000000
       -7.200000     2036.000000     2294.000000
       -7.200000     2071.100000        0.000000
       -7.200000     2071.100000     2294.000000
       -7.200000     2192.000000        0.000000
       -7.200000     2192.000000     2294.000000
       -7.200000     2216.000000        0.000000
       -7.200000     2216.000000     2294.000000
       -7.200000     2294.000000        0.000000
       -7.200000     2294.000000     2294.000000
       -7.200000     2372.000000        0.000000
       -7.200000     2372.000000     2294.000000
       -7.200000     2400.000000        0.000000
       -7.200000     2400.000000     2294.000000
       -7.200000     2416.000000        0.000000
       -7.200000     2416.000000     2294.000000
       -7.200000     2451.100000        0.000000
       -7.200000     2451.100000     2294.000000
       -7.200000     2572.000000        0.000000
       -7.200000     2572.000000     2294.000000
       -7.200000     2596.000000        0.000000
       -7.200000     2596.000000     2294.000000
       -7.200000     2674.000000        0.000000
       -7.200000     2674.000000     2294.000000
       -7.200000     2752.000000        0.000000
       -7.200000     2752.000000     2294.000000
       -7.200000     2776.000000        0.000000
       -7.200000     2776.000000     2294.000000
[...]
POINT_DATA   21565
VECTORS displacement float

      0.0000E+00      0.0000E+00      0.0000E+00
      0.0000E+00      0.0000E+00      0.0000E+00
      0.2091E-01      0.2238E-01     -0.4399E-02
      0.2075E-01      0.2272E-01     -0.3225E-02
      0.5687E-01      0.4400E-01     -0.1477E-01
      0.5583E-01      0.4469E-01     -0.1185E-01
      0.1117E+00      0.6390E-01     -0.3040E-01
      0.1092E+00      0.6497E-01     -0.2543E-01
      0.1841E+00      0.8194E-01     -0.5073E-01
      0.1795E+00      0.8338E-01     -0.4361E-01
      0.2723E+00      0.9812E-01     -0.7516E-01
      0.2651E+00      0.9995E-01     -0.6605E-01
      0.3742E+00      0.1124E+00     -0.1031E+00
      0.3639E+00      0.1147E+00     -0.9242E-01
      0.4880E+00      0.1249E+00     -0.1340E+00
      0.4740E+00      0.1275E+00     -0.1224E+00
      0.6115E+00      0.1354E+00     -0.1672E+00
      0.5934E+00      0.1385E+00     -0.1556E+00
      0.7427E+00      0.1441E+00     -0.2020E+00
      0.7203E+00      0.1476E+00     -0.1919E+00
      0.8800E+00      0.1510E+00     -0.2378E+00
      0.8528E+00      0.1550E+00     -0.2307E+00
      0.1022E+01      0.1562E+00     -0.2740E+00
      0.9894E+00      0.1606E+00     -0.2716E+00
      0.1167E+01      0.1599E+00     -0.3097E+00
      0.1129E+01      0.1644E+00     -0.3139E+00
      0.1313E+01      0.1618E+00     -0.3445E+00
      0.1268E+01      0.1663E+00     -0.3567E+00
      0.1480E+01      0.1009E+00     -0.3957E+00
      0.1459E+01      0.1625E+00     -0.3780E+00
      0.1457E+01      0.9309E-01     -0.3977E+00
      0.1438E+01      0.1097E+00     -0.3992E+00
      0.1434E+01      0.1126E+00     -0.3994E+00
      0.1429E+01      0.1150E+00     -0.3993E+00
      0.1418E+01      0.1222E+00     -0.3984E+00
      0.1415E+01      0.1289E+00     -0.3986E+00
      0.1418E+01      0.1344E+00     -0.3996E+00
      0.1424E+01      0.1384E+00     -0.4015E+00
      0.1425E+01      0.1392E+00     -0.4021E+00
      0.1426E+01      0.1398E+00     -0.4027E+00
      0.1430E+01      0.1419E+00     -0.4051E+00
      0.1432E+01      0.1449E+00     -0.4074E+00
      0.1429E+01      0.1518E+00     -0.4091E+00
      0.1424E+01      0.1700E+00     -0.4097E+00
      0.1422E+01      0.1777E+00     -0.4096E+00
      0.1421E+01      0.1870E+00     -0.4093E+00
      0.1416E+01      0.2293E+00     -0.4077E+00
      0.1404E+01      0.1669E+00     -0.3995E+00
      0.1412E+01      0.1904E+00     -0.4072E+00
      0.1508E+01      0.5499E-01     -0.4142E+00
      0.1489E+01      0.7376E-01     -0.4138E+00
      0.1476E+01      0.8893E-01     -0.4132E+00
      0.1473E+01      0.9261E-01     -0.4130E+00
      0.1470E+01      0.9633E-01     -0.4128E+00
      0.1460E+01      0.1104E+00     -0.4121E+00
      0.1453E+01      0.1204E+00     -0.4111E+00
      0.1447E+01      0.1265E+00     -0.4101E+00
      0.1444E+01      0.1281E+00     -0.4091E+00
      0.1443E+01      0.1280E+00     -0.4089E+00
      0.1443E+01      0.1277E+00     -0.4086E+00
      0.1442E+01      0.1249E+00     -0.4078E+00
      0.1443E+01      0.1189E+00     -0.4074E+00
      0.1445E+01      0.1109E+00     -0.4075E+00
      0.1447E+01      0.1005E+00     -0.4087E+00
      0.1447E+01      0.9802E-01     -0.4092E+00
      0.1447E+01      0.9606E-01     -0.4097E+00
      0.1445E+01      0.9351E-01     -0.4122E+00
      0.1441E+01      0.1245E+00     -0.4134E+00
      0.1504E+01      0.6126E-01     -0.4113E+00
      0.1489E+01      0.7372E-01     -0.4119E+00
      0.1476E+01      0.8866E-01     -0.4116E+00
      0.1473E+01      0.9218E-01     -0.4115E+00
      0.1470E+01      0.9572E-01     -0.4113E+00
      0.1460E+01      0.1088E+00     -0.4108E+00
      0.1452E+01      0.1187E+00     -0.4102E+00
      0.1447E+01      0.1257E+00     -0.4095E+00
      0.1444E+01      0.1291E+00     -0.4088E+00
      0.1443E+01      0.1294E+00     -0.4086E+00
      0.1443E+01      0.1297E+00     -0.4084E+00
      0.1442E+01      0.1289E+00     -0.4078E+00
      0.1443E+01      0.1257E+00     -0.4076E+00
      0.1445E+01      0.1209E+00     -0.4077E+00
      0.1447E+01      0.1147E+00     -0.4087E+00
      0.1447E+01      0.1130E+00     -0.4091E+00
      0.1447E+01      0.1117E+00     -0.4096E+00
      0.1445E+01      0.1106E+00     -0.4118E+00
      0.1442E+01      0.1636E+00     -0.4138E+00
      0.0000E+00      0.0000E+00      0.0000E+00
      0.0000E+00      0.0000E+00      0.0000E+00
      0.0000E+00      0.0000E+00      0.0000E+00
      0.0000E+00      0.0000E+00      0.0000E+00
      0.1694E-01      0.1211E-01     -0.1663E-02
      0.1816E-01      0.2030E-01     -0.8668E-02
      0.1664E-01      0.1305E-01     -0.3889E-03
      0.1817E-01      0.2037E-01     -0.7629E-02
      0.5310E-01      0.2390E-01     -0.1190E-01
      0.5380E-01      0.3986E-01     -0.1894E-01
      0.5171E-01      0.2567E-01     -0.8987E-02
      0.5318E-01      0.4017E-01     -0.1629E-01
      0.1085E+00      0.3488E-01     -0.2769E-01
      0.1085E+00      0.5785E-01     -0.3404E-01
      0.1054E+00      0.3732E-01     -0.2282E-01
      0.1067E+00      0.5857E-01     -0.2946E-01
      0.1815E+00      0.4495E-01     -0.4815E-01
      0.1809E+00      0.7412E-01     -0.5385E-01
      0.1762E+00      0.4791E-01     -0.4125E-01
      0.1772E+00      0.7541E-01     -0.4724E-01
      0.2703E+00      0.5413E-01     -0.7272E-01
      0.2691E+00      0.8868E-01     -0.7778E-01
      0.2621E+00      0.5743E-01     -0.6394E-01
      0.2630E+00      0.9072E-01     -0.6931E-01
      0.3729E+00      0.6243E-01     -0.1008E+00
      0.3711E+00      0.1015E+00     -0.1053E+00
      0.3612E+00      0.6589E-01     -0.9056E-01
      0.3621E+00      0.1045E+00     -0.9535E-01
      0.4876E+00      0.6986E-01     -0.1316E+00
      0.4850E+00      0.1126E+00     -0.1357E+00
      0.4717E+00      0.7328E-01     -0.1208E+00
      0.4728E+00      0.1167E+00     -0.1251E+00
      0.6125E+00      0.7644E-01     -0.1646E+00
      0.6089E+00      0.1220E+00     -0.1686E+00
      0.5916E+00      0.7961E-01     -0.1542E+00
      0.5931E+00      0.1275E+00     -0.1583E+00
      0.7458E+00      0.8216E-01     -0.1990E+00
      0.7407E+00      0.1296E+00     -0.2031E+00
      0.7189E+00      0.8488E-01     -0.1906E+00
      0.7213E+00      0.1366E+00     -0.1946E+00
      0.8856E+00      0.8702E-01     -0.2340E+00
      0.8784E+00      0.1354E+00     -0.2387E+00
      0.8519E+00      0.8915E-01     -0.2296E+00
      0.8554E+00      0.1442E+00     -0.2336E+00
      0.1030E+01      0.9102E-01     -0.2692E+00
      0.1020E+01      0.1395E+00     -0.2743E+00
      0.9889E+00      0.9257E-01     -0.2707E+00
      0.9930E+00      0.1499E+00     -0.2744E+00
      0.1179E+01      0.9424E-01     -0.3040E+00
      0.1163E+01      0.1419E+00     -0.3090E+00
      0.1130E+01      0.9541E-01     -0.3128E+00
      0.1132E+01      0.1540E+00     -0.3161E+00
      0.1330E+01      0.9685E-01     -0.3370E+00
      0.1308E+01      0.1432E+00     -0.3427E+00
      0.1274E+01      0.9768E-01     -0.3538E+00
      0.1270E+01      0.1567E+00     -0.3582E+00
      0.1484E+01      0.9766E-01     -0.3676E+00
      0.1455E+01      0.1439E+00     -0.3769E+00
      0.1419E+01      0.9773E-01     -0.3932E+00
      0.1408E+01      0.1582E+00     -0.4016E+00
      0.1652E+01      0.9286E-01     -0.4415E+00
      0.1618E+01      0.2130E+00     -0.3492E+00
      0.1655E+01      0.9288E-01     -0.4523E+00
      0.1622E+01      0.2130E+00     -0.3311E+00
      0.1661E+01      0.9314E-01     -0.4834E+00
      0.1629E+01      0.2133E+00     -0.2922E+00
      0.1680E+01      0.9473E-01     -0.6333E+00
      0.1653E+01      0.2156E+00     -0.1902E+00
      0.1683E+01      0.9513E-01     -0.6496E+00
      0.1658E+01      0.2161E+00     -0.1714E+00
      0.1696E+01      0.9647E-01     -0.6392E+00
      0.1674E+01      0.2171E+00     -0.1704E+00
      0.1710E+01      0.9763E-01     -0.5812E+00
      0.1689E+01      0.2177E+00     -0.2566E+00
      0.1715E+01      0.9785E-01     -0.6069E+00
      0.1693E+01      0.2180E+00     -0.2069E+00
      0.1721E+01      0.9802E-01     -0.6648E+00
      0.1700E+01      0.2183E+00     -0.1129E+00
      0.1742E+01      0.9859E-01     -0.8446E+00
      0.1723E+01      0.2197E+00      0.1820E-01
      0.1746E+01      0.9877E-01     -0.8428E+00
      0.1727E+01      0.2200E+00      0.2225E-01
      0.1759E+01      0.9964E-01     -0.7445E+00
      0.1744E+01      0.2208E+00     -0.6301E-01
      0.1774E+01      0.1007E+00     -0.5809E+00
      0.1759E+01      0.2210E+00     -0.2827E+00
      0.1778E+01      0.1009E+00     -0.5643E+00
      0.1763E+01      0.2212E+00     -0.2824E+00
      0.1785E+01      0.1011E+00     -0.5604E+00
      0.1770E+01      0.2215E+00     -0.2628E+00
      0.1808E+01      0.1015E+00     -0.6150E+00
      0.1792E+01      0.2230E+00     -0.3456E+00
      0.1812E+01      0.1018E+00     -0.6087E+00
      0.1797E+01      0.2237E+00     -0.3713E+00
      0.1827E+01      0.1029E+00     -0.5683E+00
      0.1815E+01      0.2262E+00     -0.4427E+00
      0.1843E+01      0.1045E+00     -0.5318E+00
      0.1833E+01      0.2273E+00     -0.4568E+00
      0.1849E+01      0.1045E+00     -0.5190E+00
      0.1840E+01      0.2275E+00     -0.4338E+00
      0.1852E+01      0.1044E+00     -0.5124E+00
      0.1843E+01      0.2275E+00     -0.4202E+00
      0.1857E+01      0.1043E+00     -0.5058E+00
      0.1849E+01      0.2277E+00     -0.3954E+00
      0.1876E+01      0.1050E+00     -0.5995E+00
      0.1870E+01      0.2294E+00     -0.4040E+00
      0.1880E+01      0.1052E+00     -0.6165E+00
      0.1875E+01      0.2298E+00     -0.3996E+00
      0.1892E+01      0.1058E+00     -0.6347E+00
      0.1891E+01      0.2308E+00     -0.3947E+00
      0.1906E+01      0.1065E+00     -0.6324E+00
      0.1907E+01      0.2310E+00     -0.3846E+00
      0.1910E+01      0.1067E+00     -0.6627E+00
      0.1912E+01      0.2310E+00     -0.3282E+00
      0.1917E+01      0.1067E+00     -0.7215E+00
      0.1919E+01      0.2310E+00     -0.2361E+00
      0.1939E+01      0.1066E+00     -0.8888E+00
      0.1942E+01      0.2310E+00     -0.1229E+00
      0.1943E+01      0.1065E+00     -0.8891E+00
      0.1947E+01      0.2312E+00     -0.1256E+00
      0.1957E+01      0.1067E+00     -0.8071E+00
      0.1963E+01      0.2316E+00     -0.2172E+00
      0.1971E+01      0.1072E+00     -0.6713E+00
      0.1980E+01      0.2312E+00     -0.3852E+00
      0.1976E+01      0.1073E+00     -0.6625E+00
      0.1984E+01      0.2312E+00     -0.3823E+00
      0.1983E+01      0.1073E+00     -0.6642E+00
      0.1991E+01      0.2312E+00     -0.3653E+00
      0.2006E+01      0.1071E+00     -0.6809E+00
      0.2014E+01      0.2316E+00     -0.4412E+00
      0.2010E+01      0.1072E+00     -0.6695E+00
      0.2019E+01      0.2321E+00     -0.4671E+00
      0.2026E+01      0.1078E+00     -0.6281E+00
      0.2038E+01      0.2340E+00     -0.5349E+00
      0.2042E+01      0.1089E+00     -0.6173E+00
      0.2056E+01      0.2344E+00     -0.5259E+00
      0.2048E+01      0.1086E+00     -0.6159E+00
      0.2063E+01      0.2342E+00     -0.5002E+00
      0.2051E+01      0.1083E+00     -0.6153E+00
      0.2066E+01      0.2340E+00     -0.4853E+00
      0.2056E+01      0.1079E+00     -0.6197E+00
      0.2071E+01      0.2338E+00     -0.4560E+00
      0.2073E+01      0.1078E+00     -0.7172E+00
      0.2092E+01      0.2344E+00     -0.4205E+00
      0.2077E+01      0.1079E+00     -0.7340E+00
      0.2097E+01      0.2346E+00     -0.4101E+00
      0.2089E+01      0.1079E+00     -0.7516E+00
      0.2112E+01      0.2349E+00     -0.4038E+00
      0.2102E+01      0.1080E+00     -0.7624E+00
      0.2127E+01      0.2346E+00     -0.4109E+00
      0.2106E+01      0.1079E+00     -0.8129E+00
      0.2131E+01      0.2345E+00     -0.3491E+00
      0.2112E+01      0.1078E+00     -0.9031E+00
      0.2138E+01      0.2343E+00     -0.2395E+00
      0.2132E+01      0.1069E+00     -0.1096E+01
      0.2161E+01      0.2334E+00     -0.3787E-01
      0.2136E+01      0.1066E+00     -0.1093E+01
      0.2166E+01      0.2332E+00     -0.3185E-01
      0.2149E+01      0.1060E+00     -0.9842E+00
      0.2182E+01      0.2327E+00     -0.1418E+00
      0.2162E+01      0.1054E+00     -0.8287E+00
      0.2197E+01      0.2316E+00     -0.3774E+00
      0.2167E+01      0.1051E+00     -0.8469E+00
      0.2201E+01      0.2313E+00     -0.3662E+00
      0.2173E+01      0.1047E+00     -0.8934E+00
      0.2208E+01      0.2309E+00     -0.3213E+00
      0.2193E+01      0.1034E+00     -0.9221E+00
      0.2230E+01      0.2298E+00     -0.3154E+00
      0.2197E+01      0.1031E+00     -0.8894E+00
      0.2235E+01      0.2297E+00     -0.3489E+00
      0.2211E+01      0.1024E+00     -0.7502E+00
      0.2251E+01      0.2298E+00     -0.5022E+00
      0.2225E+01      0.1021E+00     -0.6211E+00
      0.2268E+01      0.2292E+00     -0.6707E+00
      0.2230E+01      0.1021E+00     -0.5998E+00
      0.2274E+01      0.2292E+00     -0.6994E+00
      0.1480E+01      0.5083E-01     -0.3904E+00
      0.1477E+01      0.5673E-01     -0.3902E+00
      0.1473E+01      0.8153E-01     -0.3905E+00
      0.1458E+01      0.7361E-01     -0.3923E+00
      0.1439E+01      0.8808E-01     -0.3937E+00
      0.1434E+01      0.9139E-01     -0.3941E+00
      0.1430E+01      0.9458E-01     -0.3944E+00
      0.1418E+01      0.1066E+00     -0.3965E+00
      0.1415E+01      0.1165E+00     -0.3987E+00
      0.1418E+01      0.1243E+00     -0.4010E+00
      0.1424E+01      0.1298E+00     -0.4031E+00
      0.1425E+01      0.1306E+00     -0.4036E+00
      0.1426E+01      0.1314E+00     -0.4041E+00
      0.1431E+01      0.1330E+00     -0.4060E+00
      0.1432E+01      0.1328E+00     -0.4073E+00
      0.1429E+01      0.1315E+00     -0.4080E+00
      0.1424E+01      0.1297E+00     -0.4081E+00
      0.1422E+01      0.1292E+00     -0.4080E+00
      0.1421E+01      0.1286E+00     -0.4078E+00
      0.1416E+01      0.1277E+00     -0.4065E+00
      0.1416E+01      0.1646E+00     -0.4060E+00
      0.1415E+01      0.1564E+00     -0.4063E+00
      0.1412E+01      0.1359E+00     -0.4062E+00
      0.1518E+01      0.5204E-01     -0.4006E+00
      0.1493E+01      0.5640E-01     -0.4049E+00
      0.1483E+01      0.7365E-01     -0.4011E+00
      0.1468E+01      0.8835E-01     -0.4017E+00
      0.1463E+01      0.9167E-01     -0.4019E+00
      0.1459E+01      0.9489E-01     -0.4021E+00
      0.1445E+01      0.1069E+00     -0.4030E+00
      0.1438E+01      0.1168E+00     -0.4040E+00
      0.1437E+01      0.1246E+00     -0.4049E+00
      0.1439E+01      0.1301E+00     -0.4057E+00
      0.1440E+01      0.1310E+00     -0.4059E+00
      0.1441E+01      0.1317E+00     -0.4061E+00
      0.1445E+01      0.1332E+00     -0.4069E+00
      0.1451E+01      0.1330E+00     -0.4075E+00
      0.1458E+01      0.1316E+00     -0.4080E+00
      0.1471E+01      0.1298E+00     -0.4083E+00
      0.1475E+01      0.1293E+00     -0.4084E+00
      0.1479E+01      0.1288E+00     -0.4085E+00
      0.1497E+01      0.1284E+00     -0.4090E+00
      0.1430E+01      0.1580E+00     -0.4104E+00
      0.1462E+01      0.1359E+00     -0.4094E+00
      0.1508E+01      0.5237E-01     -0.4094E+00
      0.1504E+01      0.5833E-01     -0.4088E+00
      0.1500E+01      0.6644E-01     -0.4087E+00
      0.1489E+01      0.7367E-01     -0.4097E+00
      0.1476E+01      0.8849E-01     -0.4097E+00
      0.1473E+01      0.9182E-01     -0.4097E+00
      0.1470E+01      0.9506E-01     -0.4096E+00
      0.1460E+01      0.1070E+00     -0.4095E+00
      0.1452E+01      0.1169E+00     -0.4092E+00
      0.1447E+01      0.1247E+00     -0.4088E+00
      0.1443E+01      0.1303E+00     -0.4084E+00
      0.1443E+01      0.1311E+00     -0.4083E+00
      0.1443E+01      0.1318E+00     -0.4082E+00
      0.1442E+01      0.1333E+00     -0.4079E+00
      0.1443E+01      0.1331E+00     -0.4078E+00
      0.1445E+01      0.1318E+00     -0.4081E+00
      0.1447E+01      0.1302E+00     -0.4088E+00
      0.1447E+01      0.1297E+00     -0.4091E+00
      0.1447E+01      0.1293E+00     -0.4094E+00
      0.1445E+01      0.1288E+00     -0.4113E+00
      0.1442E+01      0.1775E+00     -0.4138E+00
      0.1442E+01      0.1616E+00     -0.4136E+00
      0.1441E+01      0.1364E+00     -0.4130E+00
      0.1514E+01      0.6195E-01     -0.4167E+00
      0.1454E+01      0.1685E+00     -0.4034E+00
      0.1528E+01      0.6612E-01     -0.4214E+00
      0.1470E+01      0.1761E+00     -0.4089E+00
      0.1530E+01      0.6668E-01     -0.4214E+00
      0.1473E+01      0.1771E+00     -0.4100E+00
      0.1542E+01      0.6933E-01     -0.4194E+00
      0.1486E+01      0.1815E+00     -0.4113E+00
      0.1553E+01      0.7145E-01     -0.4124E+00
      0.1500E+01      0.1850E+00     -0.4069E+00
      0.1559E+01      0.7268E-01     -0.4037E+00
      0.1508E+01      0.1869E+00     -0.4032E+00
      0.1561E+01      0.7309E-01     -0.4000E+00
      0.1510E+01      0.1876E+00     -0.4036E+00
      0.1569E+01      0.7459E-01     -0.3817E+00
      0.1519E+01      0.1897E+00     -0.4123E+00
      0.1577E+01      0.7631E-01     -0.3435E+00
      0.1530E+01      0.1922E+00     -0.4306E+00
      0.1587E+01      0.7805E-01     -0.2944E+00
      0.1541E+01      0.1946E+00     -0.4466E+00
      0.1601E+01      0.8069E-01     -0.2493E+00
      0.1559E+01      0.1981E+00     -0.4576E+00
      0.1617E+01      0.8344E-01     -0.2703E+00
      0.1578E+01      0.2016E+00     -0.4591E+00
      0.1633E+01      0.8648E-01     -0.3524E+00
      0.1598E+01      0.2051E+00     -0.4558E+00
      0.1652E+01      0.8896E-01     -0.4484E+00
      0.1618E+01      0.2076E+00     -0.4326E+00
      0.2194E+01      0.9185E-01     -0.6190E+00
      0.2290E+01      0.2291E+00     -0.6424E+00
      0.2196E+01      0.9185E-01     -0.6220E+00
      0.2230E+01      0.9763E-01     -0.6220E+00
      0.2274E+01      0.2241E+00     -0.6425E+00
      0.2292E+01      0.2291E+00     -0.6424E+00
      0.2256E+01      0.9837E-01     -0.4729E+00
      0.2307E+01      0.2254E+00     -0.8053E+00
      0.2286E+01      0.9838E-01     -0.3938E+00
      0.2343E+01      0.2254E+00     -0.8899E+00
      0.2317E+01      0.9822E-01     -0.3766E+00
      0.2381E+01      0.2251E+00     -0.9309E+00
      0.2350E+01      0.9884E-01     -0.4340E+00
      0.2420E+01      0.2255E+00     -0.9230E+00
      0.2336E+01      0.4358E-01     -0.6497E+00
      0.2410E+01      0.1728E+00     -0.7956E+00
      0.2331E+01      0.4360E-01     -0.6697E+00
      0.2387E+01      0.9840E-01     -0.6695E+00
      0.2463E+01      0.2250E+00     -0.7764E+00
      0.2406E+01      0.1729E+00     -0.7763E+00
      0.2412E+01      0.9770E-01     -0.4122E+00
      0.2494E+01      0.2243E+00     -0.9978E+00
      0.2440E+01      0.9764E-01     -0.3209E+00
      0.2529E+01      0.2242E+00     -0.1084E+01
      0.2469E+01      0.9677E-01     -0.3175E+00
      0.2565E+01      0.2234E+00     -0.1109E+01
      0.2502E+01      0.9739E-01     -0.3898E+00
      0.2604E+01      0.2239E+00     -0.1087E+01
      0.2479E+01     -0.7175E-02     -0.6807E+00
      0.2555E+01      0.1219E+00     -0.9197E+00
      0.2468E+01     -0.7152E-02     -0.7136E+00
      0.2547E+01      0.1023E+00     -0.7134E+00
      0.2655E+01      0.2286E+00     -0.8868E+00
      0.2546E+01      0.1219E+00     -0.8866E+00
      0.1477E+01      0.9923E-01     -0.4101E+00
      0.1476E+01      0.9903E-01     -0.4102E+00
      0.1469E+01      0.1075E+00     -0.4086E+00
      0.1467E+01      0.1091E+00     -0.4086E+00
      0.1444E+01      0.1510E+00     -0.4126E+00
      0.1444E+01      0.1498E+00     -0.4127E+00
      0.1443E+01      0.1547E+00     -0.4034E+00
      0.1443E+01      0.1576E+00     -0.4035E+00
      0.1446E+01      0.1716E+00     -0.4126E+00
      0.1447E+01      0.1697E+00     -0.4127E+00
      0.1448E+01      0.1716E+00     -0.4032E+00
      0.1448E+01      0.1751E+00     -0.4033E+00
      0.1501E+01      0.9967E-01     -0.4115E+00
      0.1501E+01      0.1003E+00     -0.4115E+00
      0.1497E+01      0.1089E+00     -0.4149E+00